   CRYSTAL
   PRIMVEC
   7.0491005383   0.0000000000   0.0000000000
   2.3323726732   7.2336800244   0.0000000000
   1.1589498923   1.4643362802  13.3945460225
 PRIMCOORD
         2         1
   H    3.4695254315   3.9904801520   6.0454627594
   H    7.0708976655   4.7075361103   7.3490833940
